

     ************************************************************************
     *************** Dalton - An Electronic Structure Program ***************
     ************************************************************************

    This is output from DALTON 2013.1
   ----------------------------------------------------------------------------
    NOTE:
     
    Dalton is an experimental code for the evaluation of molecular
    properties using (MC)SCF, DFT, CI, and CC wave functions.
    The authors accept no responsibility for the performance of
    the code or for the correctness of the results.
     
    The code (in whole or part) is provided under a licence and
    is not to be reproduced for further distribution without
    the written permission of the authors or their representatives.
     
    See the home page "http://daltonprogram.org" for further information.
     
    If results obtained with this code are published,
    the appropriate citations would be both of:
     
       K. Aidas, C. Angeli, K. L. Bak, V. Bakken, R. Bast,
       L. Boman, O. Christiansen, R. Cimiraglia, S. Coriani,
       P. Dahle, E. K. Dalskov, U. Ekstroem, T. Enevoldsen,
       J. J. Eriksen, P. Ettenhuber, B. Fernandez, L. Ferrighi,
       H. Fliegl, L. Frediani, K. Hald, A. Halkier, C. Haettig,
       H. Heiberg, T. Helgaker, A. C. Hennum, H. Hettema,
       E. Hjertenaes, S. Hoest, I.-M. Hoeyvik, M. F. Iozzi,
       B. Jansik, H. J. Aa. Jensen, D. Jonsson, P. Joergensen,
       J. Kauczor, S. Kirpekar, T. Kjaergaard, W. Klopper,
       S. Knecht, R. Kobayashi, H. Koch, J. Kongsted, A. Krapp,
       K. Kristensen, A. Ligabue, O. B. Lutnaes, J. I. Melo,
       K. V. Mikkelsen, R. H. Myhre, C. Neiss, C. B. Nielsen,
       P. Norman, J. Olsen, J. M. H. Olsen, A. Osted,
       M. J. Packer, F. Pawlowski, T. B. Pedersen, P. F. Provasi,
       S. Reine, Z. Rinkevicius, T. A. Ruden, K. Ruud, V. Rybkin,
       P. Salek, C. C. M. Samson, A. Sanchez de Meras, T. Saue,
       S. P. A. Sauer, B. Schimmelpfennig, K. Sneskov,
       A. H. Steindal, K. O. Sylvester-Hvid, P. R. Taylor,
       A. M. Teale, E. I. Tellgren, D. P. Tew, A. J. Thorvaldsen,
       L. Thoegersen, O. Vahtras, M. A. Watson, D. J. D. Wilson,
       M. Ziolkowski and H. Aagren,
       "The Dalton quantum chemistry program system",
       WIREs Comput. Mol. Sci. 2013. (doi: 10.1002/wcms.1172)
    
    and
    
       Dalton, a Molecular Electronic Structure Program,
       Release DALTON2013.1 (2013), see http://daltonprogram.org
   ----------------------------------------------------------------------------

    Authors in alphabetical order (major contribution(s) in parenthesis):

  Kestutis Aidas,           Vilnius University,           Lithuania   (QM/MM)
  Celestino Angeli,         University of Ferrara,        Italy       (NEVPT2)
  Keld L. Bak,              UNI-C,                        Denmark     (AOSOPPA, non-adiabatic coupling, magnetic properties)
  Vebjoern Bakken,          University of Oslo,           Norway      (DALTON; geometry optimizer, symmetry detection)
  Radovan Bast,             KTH Stockholm,                Sweden      (DALTON installation and execution frameworks)
  Linus Boman,              NTNU,                         Norway      (Cholesky decomposition and subsystems)
  Ove Christiansen,         Aarhus University,            Denmark     (CC module)
  Renzo Cimiraglia,         University of Ferrara,        Italy       (NEVPT2)
  Sonia Coriani,            University of Trieste,        Italy       (CC module, MCD in RESPONS)
  Paal Dahle,               University of Oslo,           Norway      (Parallelization)
  Erik K. Dalskov,          UNI-C,                        Denmark     (SOPPA)
  Thomas Enevoldsen,        Univ. of Southern Denmark,    Denmark     (SOPPA)
  Janus J. Eriksen,         Aarhus University,            Denmark     (PE-MP2/SOPPA, TDA)
  Berta Fernandez,          U. of Santiago de Compostela, Spain       (doublet spin, ESR in RESPONS)
  Lara Ferrighi,            Aarhus University,            Denmark     (PCM Cubic response)
  Heike Fliegl,             University of Oslo,           Norway      (CCSD(R12))
  Luca Frediani,            UiT The Arctic U. of Norway,  Norway      (PCM)
  Bin Gao,                  UiT The Arctic U. of Norway,  Norway      (Gen1Int library)
  Christof Haettig,         Ruhr-University Bochum,       Germany     (CC module)
  Kasper Hald,              Aarhus University,            Denmark     (CC module)
  Asger Halkier,            Aarhus University,            Denmark     (CC module)
  Hanne Heiberg,            University of Oslo,           Norway      (geometry analysis, selected one-electron integrals)
  Trygve Helgaker,          University of Oslo,           Norway      (DALTON; ABACUS, ERI, DFT modules, London, and much more)
  Alf Christian Hennum,     University of Oslo,           Norway      (Parity violation)
  Hinne Hettema,            University of Auckland,       New Zealand (quadratic response in RESPONS; SIRIUS supersymmetry)
  Eirik Hjertenaes,         NTNU,                         Norway      (Cholesky decomposition)
  Maria Francesca Iozzi,    University of Oslo,           Norway      (RPA)
  Brano Jansik              Technical Univ. of Ostrava    Czech Rep.  (DFT cubic response)
  Hans Joergen Aa. Jensen,  Univ. of Southern Denmark,    Denmark     (DALTON; SIRIUS, RESPONS, ABACUS modules, London, and much more)
  Dan Jonsson,              UiT The Arctic U. of Norway,  Norway      (cubic response in RESPONS module)
  Poul Joergensen,          Aarhus University,            Denmark     (RESPONS, ABACUS, and CC modules)
  Joanna Kauczor,           Linkoeping University,        Sweden      (Complex polarization propagator (CPP) module)
  Sheela Kirpekar,          Univ. of Southern Denmark,    Denmark     (Mass-velocity & Darwin integrals)
  Wim Klopper,              KIT Karlsruhe,                Germany     (R12 code in CC, SIRIUS, and ABACUS modules)
  Stefan Knecht,            ETH Zurich,                   Switzerland (Parallel CI and MCSCF)
  Rika Kobayashi,           Australian National Univ.,    Australia   (DIIS in CC, London in MCSCF)
  Henrik Koch,              NTNU,                         Norway      (CC module, Cholesky decomposition)
  Jacob Kongsted,           Univ. of Southern Denmark,    Denmark     (Polarizable embedding, QM/MM)
  Andrea Ligabue,           University of Modena,         Italy       (CTOCD, AOSOPPA)
  Ola B. Lutnaes,           University of Oslo,           Norway      (DFT Hessian)
  Juan I. Melo,             University of Buenos Aires,   Argentina   (LRESC, Relativistic Effects on NMR Shieldings)
  Kurt V. Mikkelsen,        University of Copenhagen,     Denmark     (MC-SCRF and QM/MM)
  Rolf H. Myhre,            NTNU,                         Norway      (Cholesky, subsystems and ECC2)
  Christian Neiss,          Univ. Erlangen-Nuernberg,     Germany     (CCSD(R12))
  Christian B. Nielsen,     University of Copenhagen,     Denmark     (QM/MM)
  Patrick Norman,           Linkoeping University,        Sweden      (Cubic response and complex response in RESPONS)
  Jeppe Olsen,              Aarhus University,            Denmark     (SIRIUS CI/density modules)
  Jogvan Magnus H. Olsen,   Univ. of Southern Denmark,    Denmark     (Polarizable embedding, PE library, QM/MM)
  Anders Osted,             Copenhagen University,        Denmark     (QM/MM)
  Martin J. Packer,         University of Sheffield,      UK          (SOPPA)
  Filip Pawlowski,          Kazimierz Wielki University,  Poland      (CC3)
  Thomas B. Pedersen,       University of Oslo,           Norway      (Cholesky decomposition)
  Patricio F. Provasi,      University of Northeastern,   Argentina   (Analysis of coupling constants in localized orbitals)
  Zilvinas Rinkevicius,     KTH Stockholm,                Sweden      (open-shell DFT, ESR)
  Elias Rudberg,            KTH Stockholm,                Sweden      (DFT grid and basis info)
  Torgeir A. Ruden,         University of Oslo,           Norway      (Numerical derivatives in ABACUS)
  Kenneth Ruud,             UiT The Arctic U. of Norway,  Norway      (DALTON; ABACUS magnetic properties and  much more)
  Pawel Salek,              KTH Stockholm,                Sweden      (DALTON; DFT code)
  Claire C. M. Samson       University of Karlsruhe       Germany     (Boys localization, r12 integrals in ERI)
  Alfredo Sanchez de Meras, University of Valencia,       Spain       (CC module, Cholesky decomposition)
  Trond Saue,               Paul Sabatier University,     France      (direct Fock matrix construction)
  Stephan P. A. Sauer,      University of Copenhagen,     Denmark     (SOPPA(CCSD), SOPPA prop., AOSOPPA, vibrational g-factors)
  Bernd Schimmelpfennig,    Forschungszentrum Karlsruhe,  Germany     (AMFI module)
  Kristian Sneskov,         Aarhus University,            Denmark     (QM/MM, PE-CC)
  Arnfinn H. Steindal,      UiT The Arctic U. of Norway,  Norway      (parallel QM/MM)
  K. O. Sylvester-Hvid,     University of Copenhagen,     Denmark     (MC-SCRF)
  Peter R. Taylor,          VLSCI/Univ. of Melbourne,     Australia   (Symmetry handling ABACUS, integral transformation)
  Andrew M. Teale,          University of Nottingham,     England     (DFT-AC, DFT-D)
  David P. Tew,             University of Bristol,        England     (CCSD(R12))
  Olav Vahtras,             KTH Stockholm,                Sweden      (triplet response, spin-orbit, ESR, TDDFT, open-shell DFT)
  David J. Wilson,          La Trobe University,          Australia   (DFT Hessian and DFT magnetizabilities)
  Hans Agren,               KTH Stockholm,                Sweden      (SIRIUS module, RESPONS, MC-SCRF solvation model)
 --------------------------------------------------------------------------------

     Date and time (Linux)  : Fri Sep 12 09:29:41 2014
     Host name              : supermario                              

 * Work memory size             :    64000000 =  488.28 megabytes.
 + memory for in-core integrals :   100000000

 * Directories for basis set searches:
   1) /home/ignat/repos/pd/test_gaussian/calcs
   2) /home/ignat/repos/beta/build_incore/basis


Compilation information
-----------------------

 Who compiled             | ignat
 Host                     | supermario
 System                   | Linux-3.13.6-1-ARCH
 CMake generator          | Unix Makefiles
 Processor                | x86_64
 64-bit integers          | OFF
 MPI                      | ON
 Fortran compiler         | /usr/bin/mpif90
 Fortran compiler version | GNU Fortran (GCC) 4.9.1
 C compiler               | /usr/bin/mpicc
 C compiler version       | gcc (GCC) 4.9.1
 C++ compiler             | /usr/bin/mpicxx
 C++ compiler version     | unknown
 BLAS                     | /lib64/libblas.so
 LAPACK                   | /lib64/liblapack.so
 Static linking           | OFF
 Last Git revision        | 40009094950fd78a6f3a8f17a3241f141fce048f
 Git branch               | beta_ignat
 Configuration time       | 2014-09-09 08:50:10.837919

 * Parallel with MPI: Using    4 CPUs.


   Content of the .dal input file
 ----------------------------------

**DALTON INPUT                                    
.RUN RESP                                         
.DIRECT                                           
.PARALLELL                                        
*END OF GENERAL                                   
**WAVE FUNCTION                                   
.INTERFACE                                        
.HF                                               
**INTEGRAL                                        
.DIPLEN                                           
.SECMOM                                           
**RESPONSE                                        
.PROPAV                                           
YDIPLEN                                           
.PROPAV                                           
XDIPLEN                                           
.PROPAV                                           
ZDIPLEN                                           
*QUADRATIC                                        
.QLOP                                             
.DIPLEN                                           
*END OF                                           


   Content of the .mol file
 ----------------------------

ATOMBASIS                                                                      
Energy calculation without symmetry                                            
Basis set specified with ATOMBASIS                                             
    2    0                                                                     
        8.    2      Basis=cc-pVDZ                                             
O         0.0 0.0 -0.2249058930                                                
O         0.0 0.0  5.775094107                                                 
        1.    4      Basis=cc-pVDZ                                             
H1    1.45235 0.0 0.899623                                                     
H2   -1.45235 0.0 0.899623                                                     
H1    1.45235 0.0 6.899623                                                     
H2   -1.45235 0.0 6.899623                                                     


       *******************************************************************
       *********** Output from DALTON general input processing ***********
       *******************************************************************

 --------------------------------------------------------------------------------
   Overall default print level:    0
   Print level for DALTON.STAT:    1

    Parallel calculation using MPI
    AO-direct calculation (in sections where implemented)
    HERMIT 1- and 2-electron integral sections will be executed
    "Old" integral transformation used (limited to max 255 basis functions)
    Wave function sections will be executed (SIRIUS module)
    Dynamic molecular response properties section will be executed (RESPONSE module)
 --------------------------------------------------------------------------------


   ****************************************************************************
   *************** Output of molecule and basis set information ***************
   ****************************************************************************


    The two title cards from your ".mol" input:
    ------------------------------------------------------------------------
 1: Energy calculation without symmetry                                     
 2: Basis set specified with ATOMBASIS                                      
    ------------------------------------------------------------------------

  Atomic type no.    1
  --------------------
  Nuclear charge:   8.00000
  Number of symmetry independent centers:    2
  Number of basis sets to read;    2
  The basis set is "cc-pVDZ" from the basis set library.
  Basis set file used for this atomic type with Z =   8 :
     "/home/ignat/repos/beta/build_incore/basis/cc-pVDZ"

  Atomic type no.    2
  --------------------
  Nuclear charge:   1.00000
  Number of symmetry independent centers:    4
  Number of basis sets to read;    2
  The basis set is "cc-pVDZ" from the basis set library.
  Basis set file used for this atomic type with Z =   1 :
     "/home/ignat/repos/beta/build_incore/basis/cc-pVDZ"


                         SYMGRP: Point group information
                         -------------------------------

Point group: C1 


                                 Isotopic Masses
                                 ---------------

                           O          15.994915
                           O          15.994915
                           H1          1.007825
                           H2          1.007825
                           H1          1.007825
                           H2          1.007825

                       Total mass:    36.021130 amu
                       Natural abundance:  99.461 %

 Center-of-mass coordinates (a.u.):    0.000000    0.000000    2.900946


  Atoms and basis sets
  --------------------

  Number of atom types :    2
  Total number of atoms:    6

  label    atoms   charge   prim   cont     basis
  ----------------------------------------------------------------------
  O           2    8.0000    26    14      [9s4p1d|3s2p1d]                                    
  H2          4    1.0000     7     5      [4s1p|2s1p]                                        
  ----------------------------------------------------------------------
  total:      6   20.0000    80    48
  ----------------------------------------------------------------------
  Spherical harmonic basis used.

  Threshold for neglecting AO integrals:  1.00D-12


  Cartesian Coordinates (a.u.)
  ----------------------------

  Total number of coordinates:   18
  O       :     1  x   0.0000000000    2  y   0.0000000000    3  z  -0.2249058930
  O       :     4  x   0.0000000000    5  y   0.0000000000    6  z   5.7750941070
  H1      :     7  x   1.4523500000    8  y   0.0000000000    9  z   0.8996230000
  H2      :    10  x  -1.4523500000   11  y   0.0000000000   12  z   0.8996230000
  H1      :    13  x   1.4523500000   14  y   0.0000000000   15  z   6.8996230000
  H2      :    16  x  -1.4523500000   17  y   0.0000000000   18  z   6.8996230000


   Interatomic separations (in Angstrom):
   --------------------------------------

            O           O           H1          H2          H1          H2    
            ------      ------      ------      ------      ------      ------
 O     :    0.000000
 O     :    3.175063    0.000000
 H1    :    0.972000    2.692027    0.000000
 H2    :    0.972000    2.692027    1.537101    0.000000
 H1    :    3.847676    0.972000    3.175063    3.527564    0.000000
 H2    :    3.847676    0.972000    3.527564    3.175063    1.537101    0.000000


  Max    interatomic separation is    3.8477 Angstrom (    7.2711 Bohr)
  between atoms    5 and    1, "H1    " and "O     ".

  Min HX interatomic separation is    0.9720 Angstrom (    1.8368 Bohr)

  Min YX interatomic separation is    3.1751 Angstrom (    6.0000 Bohr)


  Bond distances (Angstrom):
  --------------------------

                  atom 1     atom 2       distance
                  ------     ------       --------
  bond distance:  H1         O            0.972000
  bond distance:  H2         O            0.972000
  bond distance:  H1         O            0.972000
  bond distance:  H2         O            0.972000


  Bond angles (degrees):
  ----------------------

                  atom 1     atom 2     atom 3         angle
                  ------     ------     ------         -----
  bond angle:     H1         O          H2           104.500
  bond angle:     H1         O          H2           104.500




 Principal moments of inertia (u*A**2) and principal axes
 --------------------------------------------------------

   IA       2.381168          0.000000    0.000000    1.000000
   IB      92.050272          1.000000    0.000000    0.000000
   IC      94.431439          0.000000    1.000000    0.000000


 Rotational constants
 --------------------

 The molecule is planar.

               A                   B                   C

         212239.9988           5490.2500           5351.8088 MHz
            7.079564            0.183135            0.178517 cm-1


@  Nuclear repulsion energy :   34.755691925614 Hartree


                     .---------------------------------------.
                     | Starting in Integral Section (HERMIT) |
                     `---------------------------------------'



    *************************************************************************
    ****************** Output from HERMIT input processing ******************
    *************************************************************************


 Default print level:        1

 * Nuclear model: Point charge

 Calculation of one-electron Hamiltonian integrals.

 The following one-electron property integrals are calculated as requested:
          - overlap integrals
          - dipole length integrals
          - second moment integrals

 Center of mass  (bohr):      0.000000000000      0.000000000000      2.900945609336
 Operator center (bohr):      0.000000000000      0.000000000000      0.000000000000
 Gauge origin    (bohr):      0.000000000000      0.000000000000      0.000000000000
 Dipole origin   (bohr):      0.000000000000      0.000000000000      0.000000000000


     ************************************************************************
     ************************** Output from HERINT **************************
     ************************************************************************

 >>>> Total CPU  time used in HERMIT:   0.08 seconds
 >>>> Total wall time used in HERMIT:   0.08 seconds


                        .----------------------------------.
                        | End of Integral Section (HERMIT) |
                        `----------------------------------'



                   .--------------------------------------------.
                   | Starting in Wave Function Section (SIRIUS) |
                   `--------------------------------------------'


 *** Output from Huckel module :

     Using EWMO model:          T
     Using EHT  model:          F
     Number of Huckel orbitals each symmetry:   14

 EWMO - Energy Weighted Maximum Overlap - is a Huckel type method,
        which normally is better than Extended Huckel Theory.
 Reference: Linderberg and Ohrn, Propagators in Quantum Chemistry (Wiley, 1973)

 Huckel EWMO eigenvalues for symmetry :  1
          -20.685043     -20.684439      -1.635141      -1.572784      -0.793723
           -0.762389      -0.723185      -0.654101      -0.622436      -0.609964
           -0.251195      -0.219928      -0.174288      -0.171185

 **********************************************************************
 *SIRIUS* a direct, restricted step, second order MCSCF program       *
 **********************************************************************

 
     Date and time (Linux)  : Fri Sep 12 09:29:41 2014
     Host name              : supermario                              

 Title lines from ".mol" input file:
     Energy calculation without symmetry                                     
     Basis set specified with ATOMBASIS                                      

 Print level on unit LUPRI =   2 is   0
 Print level on unit LUW4  =   2 is   5

@    Restricted, closed shell Hartree-Fock calculation.

@    Time-dependent Hartree-Fock calculation (random phase approximation).
 Fock matrices are calculated directly and in parallel without use of integrals on disk.

 Initial molecular orbitals are obtained according to
 ".MOSTART EWMO  " input option

     Wave function specification
     ============================
@    For the wave function of type :      >>> HF <<<
@    Number of closed shell electrons          20
@    Number of electrons in active shells       0
@    Total charge of the molecule               0

@    Spin multiplicity and 2 M_S                1         0
     Total number of symmetries                 1
@    Reference state symmetry                   1

     Orbital specifications
     ======================
     Abelian symmetry species          All |    1
                                       --- |  ---
@    Occupied SCF orbitals              10 |   10
     Secondary orbitals                 38 |   38
     Total number of orbitals           48 |   48
     Number of basis functions          48 |   48

     Optimization information
     ========================
@    Number of configurations                 1
@    Number of orbital rotations            380
     ------------------------------------------
@    Total number of variables              381

     Maximum number of Fock   iterations      0
     Maximum number of DIIS   iterations     60
     Maximum number of QC-SCF iterations     60
     Threshold for SCF convergence     1.00D-05


 >>>>> DIIS optimization of Hartree-Fock <<<<<

 C1-DIIS algorithm; max error vectors =    5

 Iter      Total energy        Error norm    Delta(E)  DIIS dim.
 -----------------------------------------------------------------------------
@  1    -151.718221993        2.25451D+00   -1.52D+02    1
      Virial theorem: -V/T =      1.999866
@      MULPOP O      -0.57; O      -0.50; H1      0.27; H2      0.27; H1      0.26; H2      0.26; 
 -----------------------------------------------------------------------------
@  2    -152.045032929        4.29860D-01   -3.27D-01    2
      Virial theorem: -V/T =      2.002458
@      MULPOP O      -0.30; O      -0.28; H1      0.14; H2      0.14; H1      0.15; H2      0.15; 
 -----------------------------------------------------------------------------
@  3    -152.055530247        1.00224D-01   -1.05D-02    3
      Virial theorem: -V/T =      2.000887
@      MULPOP O      -0.33; O      -0.31; H1      0.16; H2      0.16; H1      0.16; H2      0.16; 
 -----------------------------------------------------------------------------
@  4    -152.056503906        3.31841D-02   -9.74D-04    4
      Virial theorem: -V/T =      2.001666
@      MULPOP O      -0.33; O      -0.32; H1      0.16; H2      0.16; H1      0.16; H2      0.16; 
 -----------------------------------------------------------------------------
@  5    -152.056571376        9.34334D-03   -6.75D-05    5
      Virial theorem: -V/T =      2.001221
@      MULPOP O      -0.34; O      -0.33; H1      0.17; H2      0.17; H1      0.17; H2      0.17; 
 -----------------------------------------------------------------------------
@  6    -152.056582361        2.06223D-03   -1.10D-05    5
      Virial theorem: -V/T =      2.001305
@      MULPOP O      -0.34; O      -0.33; H1      0.17; H2      0.17; H1      0.17; H2      0.17; 
 -----------------------------------------------------------------------------
@  7    -152.056583106        4.52102D-04   -7.46D-07    5
      Virial theorem: -V/T =      2.001319
@      MULPOP O      -0.34; O      -0.33; H1      0.17; H2      0.17; H1      0.17; H2      0.17; 
 -----------------------------------------------------------------------------
@  8    -152.056583138        4.74789D-05   -3.14D-08    5
      Virial theorem: -V/T =      2.001322
@      MULPOP O      -0.34; O      -0.33; H1      0.17; H2      0.17; H1      0.17; H2      0.17; 
 -----------------------------------------------------------------------------
@  9    -152.056583138        1.22932D-05   -2.95D-10    5
      Virial theorem: -V/T =      2.001322
@      MULPOP O      -0.34; O      -0.33; H1      0.17; H2      0.17; H1      0.17; H2      0.17; 
 -----------------------------------------------------------------------------
@ 10    -152.056583138        2.73101D-06   -2.04D-11    5

@ *** DIIS converged in  10 iterations !
@     Converged SCF energy, gradient:   -152.056583137977    2.73D-06
    - total time used in SIRFCK :              0.00 seconds


 *** SCF orbital energy analysis ***

 Only the five lowest virtual orbital energies printed in each symmetry.

 Number of electrons :   20
 Orbital occupations :   10

 Sym       Hartree-Fock orbital energies

  1    -20.57466347   -20.52665869    -1.35069018    -1.30312729    -0.71285275
        -0.66606087    -0.59084525    -0.53571436    -0.51373057    -0.46724373
         0.15852848     0.23535875     0.24229523     0.28128639     0.76544020

    E(LUMO) :     0.15852848 au (symmetry 1)
  - E(HOMO) :    -0.46724373 au (symmetry 1)
  ------------------------------------------
    gap     :     0.62577221 au

 >>> Writing SIRIFC interface file <<<

 >>>> CPU and wall time for SCF :       0.713       0.714


                       .-----------------------------------.
                       | >>> Final results from SIRIUS <<< |
                       `-----------------------------------'


@    Spin multiplicity:           1
@    Spatial symmetry:            1
@    Total charge of molecule:    0

@    Final HF energy:            -152.056583137977                 
@    Nuclear repulsion:            34.755691925614
@    Electronic energy:          -186.812275063592

@    Final gradient norm:           0.000002731014

 
     Date and time (Linux)  : Fri Sep 12 09:29:42 2014
     Host name              : supermario                              

 (Only coefficients >0.0100 are printed.)

 Molecular orbitals for symmetry species  1
 ------------------------------------------

    Orbital         6        7        8        9       10       11       12
   1 O   :1s    -0.0000   0.0028  -0.0012   0.0000  -0.0000   0.0164  -0.0000
   2 O   :1s    -0.0000  -0.0816   0.2747   0.0000  -0.0000  -0.0567   0.0000
   3 O   :1s     0.0000  -0.0674   0.1530  -0.0000   0.0000  -0.2839   0.0000
   4 O   :2px    0.7104   0.0000  -0.0000   0.0000  -0.0000   0.0000  -0.1220
   5 O   :2py   -0.0000   0.0000   0.0000  -0.0319   0.9178  -0.0000  -0.0000
   6 O   :2pz   -0.0000   0.1798  -0.7769  -0.0000   0.0000  -0.1307   0.0000
   7 O   :2px   -0.0982  -0.0000   0.0000   0.0000   0.0000   0.0000  -0.1408
   8 O   :2py   -0.0000   0.0000   0.0000  -0.0043   0.0754  -0.0000  -0.0000
   9 O   :2pz    0.0000   0.0014  -0.0046  -0.0000   0.0000  -0.0645   0.0000
  11 O   :3d1-  -0.0000  -0.0000   0.0000  -0.0007   0.0173  -0.0000  -0.0000
  12 O   :3d0    0.0000   0.0039  -0.0168  -0.0000   0.0000  -0.0022   0.0000
  13 O   :3d1+   0.0258   0.0000   0.0000   0.0000  -0.0000   0.0000  -0.0063
  15 O   :1s     0.0000  -0.0028  -0.0007  -0.0000  -0.0000   0.0445   0.0000
  16 O   :1s     0.0000   0.2700   0.0890   0.0000  -0.0000  -0.1687   0.0000
  17 O   :1s    -0.0000   0.1714   0.0602   0.0000  -0.0000  -0.8143  -0.0000
  18 O   :2px   -0.0378   0.0000   0.0000  -0.0000  -0.0000  -0.0000  -0.4013
  19 O   :2py    0.0000   0.0000   0.0000  -0.9205  -0.0380  -0.0000  -0.0000
  20 O   :2pz    0.0000  -0.7635  -0.2124  -0.0000   0.0000  -0.2216  -0.0000
  21 O   :2px    0.0054   0.0000   0.0000   0.0000   0.0000  -0.0000  -0.4404
  22 O   :2py    0.0000  -0.0000   0.0000  -0.0718   0.0006  -0.0000  -0.0000
  23 O   :2pz   -0.0000  -0.0030   0.0190   0.0000  -0.0000  -0.1731  -0.0000
  25 O   :3d1-   0.0000   0.0000   0.0000  -0.0173  -0.0008  -0.0000  -0.0000
  26 O   :3d0    0.0000  -0.0160  -0.0047  -0.0000  -0.0000  -0.0043  -0.0000
  27 O   :3d1+  -0.0017   0.0000   0.0000   0.0000   0.0000  -0.0000  -0.0209
  29 H1  :1s     0.5476   0.0798  -0.3434  -0.0000   0.0000   0.0281   0.0101
  30 H1  :1s    -0.1818  -0.0076   0.1489   0.0000  -0.0000   0.2517   0.3918
  31 H1  :2px   -0.0226  -0.0093   0.0282   0.0000   0.0000  -0.0031  -0.0058
  32 H1  :2py    0.0000  -0.0000   0.0000  -0.0019   0.0297   0.0000  -0.0000
  33 H1  :2pz   -0.0334   0.0051  -0.0050  -0.0000  -0.0000   0.0017  -0.0066
  34 H2  :1s    -0.5476   0.0798  -0.3434  -0.0000  -0.0000   0.0281  -0.0101
  35 H2  :1s     0.1818  -0.0076   0.1489   0.0000   0.0000   0.2517  -0.3918
  36 H2  :2px   -0.0226   0.0093  -0.0282  -0.0000  -0.0000   0.0031  -0.0058
  37 H2  :2py    0.0000  -0.0000   0.0000  -0.0019   0.0297   0.0000  -0.0000
  38 H2  :2pz    0.0334   0.0051  -0.0050  -0.0000  -0.0000   0.0017   0.0066
  39 H1  :1s    -0.0306  -0.3379  -0.0991  -0.0000   0.0000   0.1048   0.0209
  40 H1  :1s     0.0094   0.1298   0.0281  -0.0000   0.0000   0.6834   1.3229
  41 H1  :2px    0.0013   0.0306   0.0117   0.0000  -0.0000  -0.0134  -0.0184
  42 H1  :2py   -0.0000   0.0000  -0.0000  -0.0300  -0.0019  -0.0000   0.0000
  43 H1  :2pz    0.0018  -0.0056  -0.0024  -0.0000  -0.0000  -0.0129  -0.0163
  44 H2  :1s     0.0306  -0.3379  -0.0991  -0.0000   0.0000   0.1048  -0.0209
  45 H2  :1s    -0.0094   0.1298   0.0281   0.0000   0.0000   0.6834  -1.3229
  46 H2  :2px    0.0013  -0.0306  -0.0117  -0.0000   0.0000   0.0134  -0.0184
  47 H2  :2py   -0.0000   0.0000  -0.0000  -0.0300  -0.0019  -0.0000   0.0000
  48 H2  :2pz   -0.0018  -0.0056  -0.0024  -0.0000  -0.0000  -0.0129   0.0163



 >>>> Total CPU  time used in SIRIUS :      0.74 seconds
 >>>> Total wall time used in SIRIUS :      0.74 seconds

 
     Date and time (Linux)  : Fri Sep 12 09:29:42 2014
     Host name              : supermario                              


                     .---------------------------------------.
                     | End of Wave Function Section (SIRIUS) |
                     `---------------------------------------'



                 .------------------------------------------------.
                 | Starting in Dynamic Property Section (RESPONS) |
                 `------------------------------------------------'


 ------------------------------------------------------------------------------
  RESPONSE  -  an MCSCF, MC-srDFT, DFT, and SOPPA response property program
 ------------------------------------------------------------------------------


 <<<<<<<<<< OUTPUT FROM RESPONSE INPUT PROCESSING >>>>>>>>>>




 CHANGES OF DEFAULTS FOR RSPINP:
 -------------------------------


 AO-direct Fock matrix calculations.

 Default : Using Fock type decoupling of the two-electron density matrix :
    Add DV*(FC+FV) instead of DV*FC to E[2] approximate orbital diagonal



 Quadratic Response calculation
 ------------------------------

 First hyperpolarizability calculation : HYPCAL= T

 Spin of operator A , ISPINA=    0
 Spin of operator B , ISPINB=    0
 Spin of operator C , ISPINC=    0

  1 B-frequencies  0.000000D+00
  1 C-frequencies  0.000000D+00

 Print level                                    : IPRHYP =   2
 Maximum number of iterations in lin.rsp. solver: MAXITL =  60
 Threshold for convergence of linear resp. eq.s : THCLR  = 1.000D-03
 Maximum iterations in optimal orbital algorithm: MAXITO =   5
 Direct one-index transformation                : DIROIT= T

    3 A OPERATORS OF SYMMETRY NO:    1 AND LABELS:

          XDIPLEN 
          YDIPLEN 
          ZDIPLEN 

    3 B OPERATORS OF SYMMETRY NO:    1 AND LABELS:

          XDIPLEN 
          YDIPLEN 
          ZDIPLEN 

    3 C OPERATORS OF SYMMETRY NO:    1 AND LABELS:

          XDIPLEN 
          YDIPLEN 
          ZDIPLEN 


   SCF energy         :     -152.056583137977356
 -- inactive part     :     -186.812275063591812
 -- nuclear repulsion :       34.755691925614464


                     ***************************************
                     *** RHF response calculation (TDHF) ***
                     ***************************************



             Calculation of electronic one-electron expectation values
            ----------------------------------------------------------

 (Note that to get e.g. a dipole moment you must multiply the
  electronic number by -1 and add the nuclear contribution.)

 *** Individual non-zero orbital contributions
 *** to the expectation value for property YDIPLEN  :

     Inactive       1  1 in sym 1 :     0.00000000
     Inactive       2  2 in sym 1 :    -0.00000000
     Inactive       3  3 in sym 1 :     0.00000000
     Inactive       4  4 in sym 1 :    -0.00000000
     Inactive       5  5 in sym 1 :     0.00000000
     Inactive       6  6 in sym 1 :    -0.00000000
     Inactive       7  7 in sym 1 :     0.00000000
     Inactive       8  8 in sym 1 :     0.00000000
     Inactive       9  9 in sym 1 :    -0.00000000
     Inactive      10 10 in sym 1 :    -0.00000000

     YDIPLEN  inactive part: 2.89855491D-15
     YDIPLEN  active part  : 0.00000000D+00
     YDIPLEN  total        : 2.89855491D-15

 *** Individual non-zero orbital contributions
 *** to the expectation value for property XDIPLEN  :

     Inactive       1  1 in sym 1 :    -0.00000000
     Inactive       2  2 in sym 1 :     0.00000000
     Inactive       3  3 in sym 1 :     0.00000000
     Inactive       4  4 in sym 1 :    -0.00000000
     Inactive       5  5 in sym 1 :    -0.00000000
     Inactive       6  6 in sym 1 :    -0.00000000
     Inactive       7  7 in sym 1 :    -0.00000000
     Inactive       8  8 in sym 1 :     0.00000000
     Inactive       9  9 in sym 1 :     0.00000000
     Inactive      10 10 in sym 1 :     0.00000000

     XDIPLEN  inactive part: 5.76603422D-15
     XDIPLEN  active part  : 0.00000000D+00
     XDIPLEN  total        : 5.76603422D-15

 *** Individual non-zero orbital contributions
 *** to the expectation value for property ZDIPLEN  :

     Inactive       1  1 in sym 1 :    11.55065492
     Inactive       2  2 in sym 1 :    -0.44934523
     Inactive       3  3 in sym 1 :    12.15423406
     Inactive       4  4 in sym 1 :     0.18975465
     Inactive       5  5 in sym 1 :    12.36548086
     Inactive       6  6 in sym 1 :     0.42958258
     Inactive       7  7 in sym 1 :    10.61890868
     Inactive       8  8 in sym 1 :     0.14558616
     Inactive       9  9 in sym 1 :    11.61951958
     Inactive      10 10 in sym 1 :    -0.34668960

     ZDIPLEN  inactive part:    58.27768667
     ZDIPLEN  active part  :     0.00000000
     ZDIPLEN  total        :    58.27768667


 Linear response calculations for quadratic response
 - singlet property operator of symmetry    1


 Perturbation symmetry.     KSYMOP:       1
 Perturbation spin symmetry.TRPLET:       F
 Orbital variables.         KZWOPT:     380
 Configuration variables.   KZCONF:       0
 Total number of variables. KZVAR :     380


 QRLRVE -- linear response calculation for symmetry  1
 QRLRVE -- operator label : XDIPLEN 
 QRLRVE -- operator spin  :   0
 QRLRVE -- frequencies :  0.000000



 <<<  SOLVING SETS OF LINEAR EQUATIONS FOR LINEAR RESPONSE PROPERTIES >>>

 Operator symmetry =  1; triplet =   F


 *** THE REQUESTED    1 SOLUTION VECTORS CONVERGED

 Convergence of RSP solution vectors, threshold = 1.00D-03
 ---------------------------------------------------------------
 (dimension of paired reduced space:   10)
 RSP solution vector no.    1; norm of residual   5.40D-04

 *** RSPCTL MICROITERATIONS CONVERGED

 QRLRVE: SINGLET SOLUTION FOR SYMMETRY    1    LABEL   XDIPLEN     FREQUENCY   0.000000D+00

@ QRLRVE:  << XDIPLEN  ; XDIPLEN  >> (   0.00000):     13.8794674589    

@ QRLRVE:  << YDIPLEN  ; XDIPLEN  >> (   0.00000):    5.172368634881E-15

@ QRLRVE:  << ZDIPLEN  ; XDIPLEN  >> (   0.00000):   -3.333703294848E-14


 QRLRVE -- linear response calculation for symmetry  1
 QRLRVE -- operator label : YDIPLEN 
 QRLRVE -- operator spin  :   0
 QRLRVE -- frequencies :  0.000000



 <<<  SOLVING SETS OF LINEAR EQUATIONS FOR LINEAR RESPONSE PROPERTIES >>>

 Operator symmetry =  1; triplet =   F


 *** THE REQUESTED    1 SOLUTION VECTORS CONVERGED

 Convergence of RSP solution vectors, threshold = 1.00D-03
 ---------------------------------------------------------------
 (dimension of paired reduced space:   10)
 RSP solution vector no.    1; norm of residual   7.46D-04

 *** RSPCTL MICROITERATIONS CONVERGED

 QRLRVE: SINGLET SOLUTION FOR SYMMETRY    1    LABEL   YDIPLEN     FREQUENCY   0.000000D+00

@ QRLRVE:  << XDIPLEN  ; YDIPLEN  >> (   0.00000):    5.196978111872E-15

@ QRLRVE:  << YDIPLEN  ; YDIPLEN  >> (   0.00000):     5.97274937145    

@ QRLRVE:  << ZDIPLEN  ; YDIPLEN  >> (   0.00000):    1.188312454046E-14


 QRLRVE -- linear response calculation for symmetry  1
 QRLRVE -- operator label : ZDIPLEN 
 QRLRVE -- operator spin  :   0
 QRLRVE -- frequencies :  0.000000



 <<<  SOLVING SETS OF LINEAR EQUATIONS FOR LINEAR RESPONSE PROPERTIES >>>

 Operator symmetry =  1; triplet =   F


 *** THE REQUESTED    1 SOLUTION VECTORS CONVERGED

 Convergence of RSP solution vectors, threshold = 1.00D-03
 ---------------------------------------------------------------
 (dimension of paired reduced space:   12)
 RSP solution vector no.    1; norm of residual   5.92D-04

 *** RSPCTL MICROITERATIONS CONVERGED

 QRLRVE: SINGLET SOLUTION FOR SYMMETRY    1    LABEL   ZDIPLEN     FREQUENCY   0.000000D+00

@ QRLRVE:  << XDIPLEN  ; ZDIPLEN  >> (   0.00000):   -3.636756504433E-15

@ QRLRVE:  << YDIPLEN  ; ZDIPLEN  >> (   0.00000):    1.096826988932E-14

@ QRLRVE:  << ZDIPLEN  ; ZDIPLEN  >> (   0.00000):     11.6092811238    
 
 ======================================================================
 >>>>>>>>    L I N E A R   R E S P O N S E   F U N C T I O N   <<<<<<<<
 ======================================================================

 The -<<A;B>>(omega_b) functions from vectors generated
 in a *QUADRA calculation of <<A;B,C>>(omega_b,omega_c)

 Note: the accuracy of off-diagonal elements will be linear
 in the convergence threshold THCLR =  1.00D-03


 Perturbation symmetry.     KSYMOP:       1
 Perturbation spin symmetry.TRPLET:       F
 Orbital variables.         KZWOPT:     380
 Configuration variables.   KZCONF:       0
 Total number of variables. KZVAR :     380

@ Singlet linear response function in a.u.

@ A operator, symmetry, frequency:   XDIPLEN    1 -0.000000
@ B operator, symmetry, frequency:   XDIPLEN    1  0.000000

@ Value of linear response -<<A;B>>(omega):      13.879467458895

@ Singlet linear response function in a.u.

@ A operator, symmetry, frequency:   YDIPLEN    1 -0.000000
@ B operator, symmetry, frequency:   XDIPLEN    1  0.000000

@ Value of linear response -<<A;B>>(omega):       0.000000000000

@ Singlet linear response function in a.u.

@ A operator, symmetry, frequency:   ZDIPLEN    1 -0.000000
@ B operator, symmetry, frequency:   XDIPLEN    1  0.000000

@ Value of linear response -<<A;B>>(omega):      -0.000000000000

@ Singlet linear response function in a.u.

@ A operator, symmetry, frequency:   XDIPLEN    1 -0.000000
@ B operator, symmetry, frequency:   YDIPLEN    1  0.000000

@ Value of linear response -<<A;B>>(omega):       0.000000000000

@ Singlet linear response function in a.u.

@ A operator, symmetry, frequency:   YDIPLEN    1 -0.000000
@ B operator, symmetry, frequency:   YDIPLEN    1  0.000000

@ Value of linear response -<<A;B>>(omega):       5.972749371452

@ Singlet linear response function in a.u.

@ A operator, symmetry, frequency:   ZDIPLEN    1 -0.000000
@ B operator, symmetry, frequency:   YDIPLEN    1  0.000000

@ Value of linear response -<<A;B>>(omega):       0.000000000000

@ Singlet linear response function in a.u.

@ A operator, symmetry, frequency:   XDIPLEN    1 -0.000000
@ B operator, symmetry, frequency:   ZDIPLEN    1  0.000000

@ Value of linear response -<<A;B>>(omega):      -0.000000000000

@ Singlet linear response function in a.u.

@ A operator, symmetry, frequency:   YDIPLEN    1 -0.000000
@ B operator, symmetry, frequency:   ZDIPLEN    1  0.000000

@ Value of linear response -<<A;B>>(omega):       0.000000000000

@ Singlet linear response function in a.u.

@ A operator, symmetry, frequency:   ZDIPLEN    1 -0.000000
@ B operator, symmetry, frequency:   ZDIPLEN    1  0.000000

@ Value of linear response -<<A;B>>(omega):      11.609281123755


  Results from quadratic response calculation
 --------------------------------------------



 CRLRV3 -- linear response calc for sym:  1
 CRLRV3 -- operator label1: XDIPLEN 
 CRLRV3 -- operator label2: XDIPLEN 
 CRLRV3 -- freqr1 :   0.000000D+00
 CRLRV3 -- freqr2 :   0.000000D+00



 <<<  SOLVING SETS OF LINEAR EQUATIONS FOR LINEAR RESPONSE PROPERTIES >>>

 Operator symmetry =  1; triplet =   F


 *** THE REQUESTED    1 SOLUTION VECTORS CONVERGED

 Convergence of RSP solution vectors, threshold = 1.00D-03
 ---------------------------------------------------------------
 (dimension of paired reduced space:   12)
 RSP solution vector no.    1; norm of residual   3.81D-04

 *** RSPCTL MICROITERATIONS CONVERGED
    XDIPLEN     XDIPLEN      freq1     freq2                Norm
 ---------------------------------------------------------------
                          0.000000  0.000000         11.90363775
@ B-freq = 0.000000  C-freq = 0.000000     beta(X;X,X) =      0.00000000
@ B-freq = 0.000000  C-freq = 0.000000     beta(Y;X,X) =     -0.00000000
@ B-freq = 0.000000  C-freq = 0.000000     beta(Z;X,X) =    -32.91264615
@ B-freq = 0.000000  C-freq = 0.000000     beta(X;Y,X) = beta(Y,X,X)


 CRLRV3 -- linear response calc for sym:  1
 CRLRV3 -- operator label1: YDIPLEN 
 CRLRV3 -- operator label2: XDIPLEN 
 CRLRV3 -- freqr1 :   0.000000D+00
 CRLRV3 -- freqr2 :   0.000000D+00



 <<<  SOLVING SETS OF LINEAR EQUATIONS FOR LINEAR RESPONSE PROPERTIES >>>

 Operator symmetry =  1; triplet =   F


 *** THE REQUESTED    1 SOLUTION VECTORS CONVERGED

 Convergence of RSP solution vectors, threshold = 1.00D-03
 ---------------------------------------------------------------
 (dimension of paired reduced space:    8)
 RSP solution vector no.    1; norm of residual   5.64D-04

 *** RSPCTL MICROITERATIONS CONVERGED
    YDIPLEN     XDIPLEN      freq1     freq2                Norm
 ---------------------------------------------------------------
                          0.000000  0.000000          6.30926233
@ B-freq = 0.000000  C-freq = 0.000000     beta(X;Y,X) =     -0.00000000
@ B-freq = 0.000000  C-freq = 0.000000     beta(Y;Y,X) =     -0.00000000
@ B-freq = 0.000000  C-freq = 0.000000     beta(Z;Y,X) =     -0.00000000
@ B-freq = 0.000000  C-freq = 0.000000     beta(X;Z,X) = beta(Z,X,X)
@ B-freq = 0.000000  C-freq = 0.000000     beta(Y;Z,X) = beta(Z,Y,X)


 CRLRV3 -- linear response calc for sym:  1
 CRLRV3 -- operator label1: ZDIPLEN 
 CRLRV3 -- operator label2: XDIPLEN 
 CRLRV3 -- freqr1 :   0.000000D+00
 CRLRV3 -- freqr2 :   0.000000D+00



 <<<  SOLVING SETS OF LINEAR EQUATIONS FOR LINEAR RESPONSE PROPERTIES >>>

 Operator symmetry =  1; triplet =   F


 *** THE REQUESTED    1 SOLUTION VECTORS CONVERGED

 Convergence of RSP solution vectors, threshold = 1.00D-03
 ---------------------------------------------------------------
 (dimension of paired reduced space:   10)
 RSP solution vector no.    1; norm of residual   1.66D-04

 *** RSPCTL MICROITERATIONS CONVERGED
    ZDIPLEN     XDIPLEN      freq1     freq2                Norm
 ---------------------------------------------------------------
                          0.000000  0.000000         11.84325771
@ B-freq = 0.000000  C-freq = 0.000000     beta(X;Z,X) =    -32.91437074
@ B-freq = 0.000000  C-freq = 0.000000     beta(Y;Z,X) =     -0.00000000
@ B-freq = 0.000000  C-freq = 0.000000     beta(Z;Z,X) =     -0.00000000
@ B-freq = 0.000000  C-freq = 0.000000     beta(X;X,Y) = beta(Y,X,X)
@ B-freq = 0.000000  C-freq = 0.000000     beta(Y;X,Y) = beta(Y,Y,X)
@ B-freq = 0.000000  C-freq = 0.000000     beta(Z;X,Y) = beta(Z,Y,X)
@ B-freq = 0.000000  C-freq = 0.000000     beta(X;Y,Y) = beta(Y,Y,X)


 CRLRV3 -- linear response calc for sym:  1
 CRLRV3 -- operator label1: YDIPLEN 
 CRLRV3 -- operator label2: YDIPLEN 
 CRLRV3 -- freqr1 :   0.000000D+00
 CRLRV3 -- freqr2 :   0.000000D+00



 <<<  SOLVING SETS OF LINEAR EQUATIONS FOR LINEAR RESPONSE PROPERTIES >>>

 Operator symmetry =  1; triplet =   F


 *** THE REQUESTED    1 SOLUTION VECTORS CONVERGED

 Convergence of RSP solution vectors, threshold = 1.00D-03
 ---------------------------------------------------------------
 (dimension of paired reduced space:   10)
 RSP solution vector no.    1; norm of residual   7.24D-04

 *** RSPCTL MICROITERATIONS CONVERGED
    YDIPLEN     YDIPLEN      freq1     freq2                Norm
 ---------------------------------------------------------------
                          0.000000  0.000000          2.33033630
@ B-freq = 0.000000  C-freq = 0.000000     beta(X;Y,Y) =     -0.00000000
@ B-freq = 0.000000  C-freq = 0.000000     beta(Y;Y,Y) =     -0.00000000
@ B-freq = 0.000000  C-freq = 0.000000     beta(Z;Y,Y) =     -4.20244850
@ B-freq = 0.000000  C-freq = 0.000000     beta(X;Z,Y) = beta(Z,Y,X)
@ B-freq = 0.000000  C-freq = 0.000000     beta(Y;Z,Y) = beta(Z,Y,Y)


 CRLRV3 -- linear response calc for sym:  1
 CRLRV3 -- operator label1: ZDIPLEN 
 CRLRV3 -- operator label2: YDIPLEN 
 CRLRV3 -- freqr1 :   0.000000D+00
 CRLRV3 -- freqr2 :   0.000000D+00



 <<<  SOLVING SETS OF LINEAR EQUATIONS FOR LINEAR RESPONSE PROPERTIES >>>

 Operator symmetry =  1; triplet =   F


 *** THE REQUESTED    1 SOLUTION VECTORS CONVERGED

 Convergence of RSP solution vectors, threshold = 1.00D-03
 ---------------------------------------------------------------
 (dimension of paired reduced space:   10)
 RSP solution vector no.    1; norm of residual   2.16D-04

 *** RSPCTL MICROITERATIONS CONVERGED
    ZDIPLEN     YDIPLEN      freq1     freq2                Norm
 ---------------------------------------------------------------
                          0.000000  0.000000          4.66273339
@ B-freq = 0.000000  C-freq = 0.000000     beta(X;Z,Y) =     -0.00000000
@ B-freq = 0.000000  C-freq = 0.000000     beta(Y;Z,Y) =     -4.20042291
@ B-freq = 0.000000  C-freq = 0.000000     beta(Z;Z,Y) =     -0.00000000
@ B-freq = 0.000000  C-freq = 0.000000     beta(X;X,Z) = beta(Z,X,X)
@ B-freq = 0.000000  C-freq = 0.000000     beta(Y;X,Z) = beta(Z,Y,X)
@ B-freq = 0.000000  C-freq = 0.000000     beta(Z;X,Z) = beta(Z,Z,X)
@ B-freq = 0.000000  C-freq = 0.000000     beta(X;Y,Z) = beta(Z,Y,X)
@ B-freq = 0.000000  C-freq = 0.000000     beta(Y;Y,Z) = beta(Z,Y,Y)
@ B-freq = 0.000000  C-freq = 0.000000     beta(Z;Y,Z) = beta(Z,Z,Y)
@ B-freq = 0.000000  C-freq = 0.000000     beta(X;Z,Z) = beta(Z,Z,X)
@ B-freq = 0.000000  C-freq = 0.000000     beta(Y;Z,Z) = beta(Z,Z,Y)


 CRLRV3 -- linear response calc for sym:  1
 CRLRV3 -- operator label1: ZDIPLEN 
 CRLRV3 -- operator label2: ZDIPLEN 
 CRLRV3 -- freqr1 :   0.000000D+00
 CRLRV3 -- freqr2 :   0.000000D+00



 <<<  SOLVING SETS OF LINEAR EQUATIONS FOR LINEAR RESPONSE PROPERTIES >>>

 Operator symmetry =  1; triplet =   F


 *** THE REQUESTED    1 SOLUTION VECTORS CONVERGED

 Convergence of RSP solution vectors, threshold = 1.00D-03
 ---------------------------------------------------------------
 (dimension of paired reduced space:   10)
 RSP solution vector no.    1; norm of residual   7.97D-04

 *** RSPCTL MICROITERATIONS CONVERGED
    ZDIPLEN     ZDIPLEN      freq1     freq2                Norm
 ---------------------------------------------------------------
                          0.000000  0.000000         17.65736147
@ B-freq = 0.000000  C-freq = 0.000000     beta(X;Z,Z) =     -0.00000000
@ B-freq = 0.000000  C-freq = 0.000000     beta(Y;Z,Z) =     -0.00000000
@ B-freq = 0.000000  C-freq = 0.000000     beta(Z;Z,Z) =    -14.68239830

 >>>> Total CPU  time used in RESPONSE:   3.23 seconds
 >>>> Total wall time used in RESPONSE:   3.25 seconds


                   .-------------------------------------------.
                   | End of Dynamic Property Section (RESPONS) |
                   `-------------------------------------------'

 >>>> Total CPU  time used in DALTON:   4.07 seconds
 >>>> Total wall time used in DALTON:   4.08 seconds

 
     Date and time (Linux)  : Fri Sep 12 09:29:45 2014
     Host name              : supermario                              
